2
LiH_output.log	Energy:   -5071.4826132
Li         0.00000        0.00000        0.40527
H          0.00000        0.00000       -1.21581
